640
Time=202499.99999916 pbc="T T T" Lattice="26.94944546 0.01340990 0.00162887 -13.46314186 23.35069706 0.01344242 0.00143201 0.01417822 23.18310680" Properties=species:S:1:pos:R:3
Ba 3.56269400 1.80381450 1.47886965
Ba 3.37962812 1.90184850 7.45881563
Ba -0.05154087 7.77922411 1.37289674
Ba -0.23869755 7.72135944 7.12731478
Ba 10.10318198 1.90253309 1.41897367
Ba 9.88786294 2.10811881 7.52980786
Ba 7.08241240 7.62278590 1.55542273
Ba 6.76643353 7.91736306 7.03273571
Ba 0.13195861 3.97638665 4.59152729
Ba -0.07368007 3.96879203 10.27615321
Ba -3.19582613 9.69792448 4.16224482
Ba -3.48250810 9.56514782 10.49166118
Ba 6.93489368 3.72075166 4.47591696
Ba 6.68842225 4.10292119 10.25520610
Ba 3.39326893 9.92699048 4.50396955
Ba 3.37795734 9.88536339 10.05420149
Ti 13.54240735 23.15739929 3.08344346
Ti 13.41275446 23.21258948 8.80423178
Ti 23.53998747 5.48154856 2.76281587
Ti 23.53182609 5.61650196 8.59807114
Ti -6.39896331 23.19327893 2.91549758
Ti -6.60960429 23.26710778 8.68428350
Ti 3.26490784 5.73792164 3.39182324
Ti 3.22807562 5.53178287 9.11402284
Ti 0.28854551 0.40964287 0.21330876
Ti 0.36124126 0.21556278 5.85880243
Ti -3.10411577 5.89645161 23.03447825
Ti -3.43354806 5.99303974 5.69963074
Ti -6.68007292 22.97957452 23.11457051
Ti -6.87477056 23.24880896 5.78781501
Ti 3.48253838 5.90083004 0.62047413
Ti 3.35789116 5.95307616 6.27005381
S 0.08461424 2.04591707 1.81452305
S 0.09819599 1.99894319 7.55719426
S -3.35960469 7.77316172 1.24761290
S -3.61248234 7.67977576 7.24116671
S 6.90503863 1.53528112 1.43408954
S 6.69662500 1.83029418 7.24084379
S 3.57882941 7.71515578 1.96595757
S 3.29273430 7.67363802 7.71134704
S 5.20917294 0.95326114 4.27559213
S 5.07169851 1.00347405 9.95218144
S 1.64741228 6.82229781 4.67692410
S 1.72407985 6.78351347 10.47343962
S 11.95481283 0.89101737 4.09526571
S 11.82577096 1.00880051 10.12681763
S 8.34378191 6.78092020 4.29275263
S 8.53955475 6.95267242 9.91474293
S 2.06534012 0.85721500 4.50547930
S 1.88897088 1.02801694 10.33512120
S -1.71333917 6.87067758 4.30427799
S -1.60602719 6.80848725 10.14555323
S 8.62527691 0.84343862 4.63066284
S 8.39475683 1.14076626 10.19738157
S 4.93097301 6.74728819 4.75583508
S 5.03404324 6.73776865 10.40948296
S 1.70185477 4.91822237 1.85397556
S 1.55651014 4.73183035 7.56615682
S -1.59916428 10.70396044 1.22335034
S -1.68301869 10.81400813 7.07936285
S 8.44579385 4.69867144 1.42115342
S 8.36724845 4.91070554 7.17795383
S 5.13526938 10.78406780 1.28874330
S 5.07526616 10.62756309 7.04646058
S 3.57989812 3.88342796 4.66798332
S 3.47635163 3.73792619 10.55794996
S 0.07917368 9.63068480 4.13836158
S -0.12051985 9.75360880 9.84953558
S 10.12986933 3.87111709 4.45534283
S 10.14046591 4.01734519 10.17623556
S 6.80536118 9.79069487 4.18838844
S 6.85200356 9.79637440 10.14725192
S -1.69142636 4.77492116 1.21908537
S -1.64736462 4.99785456 7.12492014
S -5.03084324 10.70022020 1.49079610
S -4.87447798 10.66811117 7.31567778
S 5.12801070 4.74913070 1.83741557
S 4.87606599 4.68312686 7.58793981
S 1.67049066 10.54863734 1.15332702
S 1.58170909 10.66651771 7.13574844
Ba 3.33986157 1.96157483 13.13922718
Ba 3.39749726 1.98720973 19.05469465
Ba -0.00083772 7.68474955 12.94007552
Ba 0.09329164 7.99913200 18.96564696
Ba 10.00094562 2.05036700 12.86546569
Ba 9.98541656 1.90076219 19.15602954
Ba 6.68751377 7.91015345 13.25086818
Ba 6.80259453 7.65331627 18.86975003
Ba -0.06349897 3.87636596 15.99723496
Ba -0.01075773 3.87398568 21.70869133
Ba -3.22860950 9.85535620 16.21361766
Ba -3.39261052 9.41120341 21.57631580
Ba 6.37411451 3.74185918 16.18354331
Ba 6.57448803 3.82089187 22.11859156
Ba 3.42231372 9.67826769 16.23382327
Ba 3.38589840 9.62641538 21.86565449
Ti 26.66899179 0.00487337 14.47173324
Ti 13.36144698 23.20644442 20.46252115
Ti 23.44380383 5.78185863 14.53441390
Ti 23.44576861 5.48338731 20.18505126
Ti -6.68105646 23.20439719 14.55091140
Ti -6.69038499 23.04256887 20.12852510
Ti 3.14782045 5.59436318 14.89362997
Ti 3.27122065 5.66603323 20.82870976
Ti 0.18171417 0.16220533 11.58237016
Ti 0.13783062 0.12415102 17.40072017
Ti -3.22823601 5.96944295 11.68233686
Ti -3.32006508 6.18964423 17.36245206
Ti 6.66080120 0.21007608 11.55649081
Ti 6.46165479 0.16368374 17.36431621
Ti 3.50209480 6.09018340 12.02548564
Ti 3.63785783 6.03947814 17.82672654
S -0.31465105 1.91114882 13.15272512
S 0.15306373 1.78486936 19.09977773
S -3.28375219 7.74318324 13.17408192
S -3.21985454 7.76562770 18.95945288
S 6.88172263 1.90735217 13.08279097
S 6.62934528 1.81476742 18.98205566
S 3.35290125 7.78537553 13.44896952
S 3.53585416 7.78731354 19.15610372
S 4.86810637 0.91596619 15.93066881
S 5.04673897 0.57591749 21.68341974
S 1.61791240 6.58677763 16.36224701
S 1.58396223 6.61306630 22.12701296
S 11.57444606 1.06652394 16.01134918
S 11.86943432 1.06382675 21.81056152
S 8.37958236 6.89457478 15.83800108
S 8.45370608 6.95056188 21.58988949
S 1.61552093 1.04201437 15.84327732
S 1.85923209 1.00908950 21.86179101
S -1.62012531 6.93757792 15.97845935
S -1.59578360 6.76765338 21.53919392
S 8.26590098 1.06877821 16.10383592
S 8.42252530 0.67193200 21.65765786
S 5.05456602 6.63836817 16.18597224
S 4.93028127 6.74034677 22.01619671
S 1.76864539 4.92413544 13.36395326
S 1.83622011 4.93275822 19.08920359
S -1.83525429 10.77129985 12.90921047
S -1.64302314 10.67632080 18.79033393
S 8.34477540 5.11673861 12.89122775
S 8.48581267 4.86503862 18.68829322
S 5.19715709 10.78144840 12.85382099
S 4.97888374 10.78548165 18.70111907
S 3.26808503 3.85779712 16.37735222
S 3.42103427 3.83073752 22.16382739
S -0.04293747 9.78624197 15.72597580
S 0.13545483 9.67014268 21.48680271
S 10.07401227 4.02296461 15.74526167
S 9.99232797 3.93314787 21.75860097
S 6.56774230 9.92715180 15.78702485
S 6.77576943 9.67736459 21.71434889
S -1.72866530 4.84979493 13.11916918
S -1.78584473 4.73310563 18.81167410
S -5.06018053 10.79258999 13.29836918
S -5.10174820 10.73103607 19.04724586
S 4.98156286 4.95717042 13.33831831
S 5.01608644 4.70940912 19.17265064
S 1.75080058 10.63697281 12.69586029
S 1.79892327 10.86891932 18.53326210
Ba -3.42266962 13.51721953 1.37360890
Ba -3.21317343 13.78901842 7.32619938
Ba -6.73391396 19.44057739 1.26300472
Ba -6.68858038 19.36009217 7.07201586
Ba 3.47904137 13.67029540 1.34770388
Ba 3.42115031 13.96404718 6.77067003
Ba -0.09137828 19.26826062 1.69949393
Ba 0.13066278 19.55991854 7.39502113
Ba -6.75004299 15.64673143 4.34927327
Ba -6.47216427 15.62287758 10.27173568
Ba -10.07735093 21.36612870 4.29317520
Ba -10.03051192 21.57174807 10.14948596
Ba -0.03549518 15.58074800 4.32621739
Ba 0.00279710 15.44906414 10.46327962
Ba -3.46412109 21.29711396 4.66564078
Ba -3.24972742 21.49705103 10.22369149
Ti -6.44508699 11.40399606 3.21080172
Ti -6.29934118 11.58984081 8.90828856
Ti -9.88757189 17.33334017 2.35962579
Ti -10.03393713 17.35502026 8.20055876
Ti 0.23379341 11.69946908 2.48930634
Ti 0.11868001 11.89473822 8.41004300
Ti -3.33593314 17.38076422 3.37482286
Ti -3.23872569 17.68214974 9.19780276
Ti 20.03303098 11.82356284 0.33865908
Ti 20.08806021 11.69082940 6.01850569
Ti 16.65431041 17.72076222 22.72181674
Ti -10.00985965 17.69905908 5.31187670
Ti -0.07675011 11.48215214 22.69281460
Ti -0.24923083 11.62326031 5.38631021
Ti -3.48482317 17.33848042 0.41492261
Ti -3.44102577 17.46811482 6.33928451
S -6.70982335 13.46574137 1.77900390
S -6.69882236 13.53837805 7.41562041
S -10.06029129 19.42548340 1.29646066
S -10.11784914 19.37536488 6.94377518
S 0.10372326 13.61341292 1.10587383
S -0.02383137 13.73537677 6.96548069
S -3.40612896 19.30232085 1.63404477
S -3.47511512 19.51429145 7.31506462
S -1.68611762 12.56099666 3.94339150
S -1.76508044 12.67107209 9.86228551
S -5.07115011 18.46316566 4.57020950
S -4.91545137 18.58689860 10.36251418
S 5.30379231 12.88128938 4.18909640
S 5.33919347 12.84463114 9.89300918
S 1.62472220 18.61081168 4.11862775
S 1.54683209 18.41523883 9.97798038
S -4.97801569 12.51506527 4.51081657
S -4.98980450 12.60114533 10.46574343
S -8.27985519 18.47501613 3.99110548
S -8.36533581 18.68319321 9.84641263
S 1.73896304 12.71375023 4.16528492
S 1.47916978 12.59667358 10.19595311
S -1.62029377 18.34309344 4.59657182
S -1.52497838 18.55887509 10.36767696
S -5.16935223 16.34519770 1.55285031
S -4.97143927 16.56931104 7.61721060
S -8.36654059 22.28684241 1.50949526
S -8.35424663 22.15281209 7.29883801
S 1.77180436 16.66319749 1.56013488
S 1.62759931 16.71333497 7.16353418
S -1.65644902 22.25572253 1.51898465
S -1.61131362 22.31329897 7.31610279
S -3.34805716 15.52715921 4.62092796
S -3.37257752 15.61484207 10.29975643
S -6.70709803 21.32770075 4.43842804
S -6.74113315 21.41932346 10.31076621
S 3.39089910 15.71971400 4.32021375
S 3.39863751 15.61897726 9.95641557
S 0.04973099 21.23997258 4.42203590
S -0.15736829 21.66535494 10.30553215
S -8.38203082 16.44689399 1.02303565
S -8.34097024 16.49159214 6.93584264
S -11.74804955 22.46058398 1.72183774
S -11.75332219 22.31359117 7.40477232
S -1.78870230 16.22463912 1.60743325
S -1.55215781 16.62968175 7.57550510
S -5.06474666 22.06409730 1.41293631
S -4.88405975 22.45611074 7.33564928
Ba -3.26905246 13.77517151 13.37346048
Ba -3.47586915 13.66767792 19.02643859
Ba -6.51170407 19.37657500 13.05297063
Ba -6.87061951 19.40006478 18.63293951
Ba 3.19776148 13.64484846 12.70642250
Ba 3.24628653 13.74878222 18.58982657
Ba 0.00328419 19.60801148 13.10990858
Ba -0.15809195 19.48504196 19.01351237
Ba -6.88510030 15.65036622 15.95302398
Ba -6.80558822 15.57854777 21.56256483
Ba -10.01282194 21.40771687 15.80952385
Ba -10.34521310 21.35077400 21.66491771
Ba -0.00659145 15.43612158 15.91562641
Ba -0.04383199 15.54150486 21.77721716
Ba -3.44218838 21.69034132 16.18165134
Ba -3.36612905 21.24582278 21.85987255
Ti -6.42284058 11.71366049 14.74828631
Ti 20.19014472 11.43454455 20.64184114
Ti -10.06128077 17.76460421 14.17450515
Ti 16.71017553 17.57287631 19.93874926
Ti 0.20988490 11.59978181 14.14400762
Ti 0.32735741 11.72917469 19.84422979
Ti -3.29449727 17.64539982 14.81967384
Ti -3.34760813 17.57760997 20.70349742
Ti 19.95771209 11.78876810 11.74525357
Ti 20.04740714 11.68769898 17.73574074
Ti -9.99089470 17.62857024 11.09531306
Ti 16.71549598 17.37253995 16.99501998
Ti -0.33367213 11.55749699 11.24635871
Ti -0.23608057 11.67895164 17.09051332
Ti -3.30335711 17.50623041 11.98092041
Ti -3.47463774 17.61980658 17.75494297
S -7.04651237 13.64566290 13.31547766
S -6.74749514 13.59718764 18.92569544
S -10.12190961 19.77549393 12.77653093
S -10.33328129 19.29422454 18.52949187
S 0.01399220 13.58511422 12.98301788
S 0.03663327 13.57888103 18.64872268
S -3.28883836 19.47559452 13.20572157
S -3.23903953 19.47044760 18.89144875
S -1.71330256 12.68143870 15.62608434
S -1.74001682 12.31721774 21.35391305
S -5.10715420 18.56831047 16.02926726
S -5.02010843 18.46573069 21.99055481
S 5.03741229 12.78855058 15.89993526
S 5.16854110 12.68487652 21.50890764
S 1.60863294 18.63014130 15.85502737
S 1.58461229 18.41987802 21.68901553
S -5.01918324 12.61605142 16.24083480
S -5.12401973 12.53548414 22.06171493
S -8.57447879 18.51809603 15.76275084
S -8.48432664 18.50376526 21.48028493
S 1.61282690 12.56450232 15.82387127
S 1.81331012 12.62369050 21.59456794
S -1.70601506 18.44507989 16.24501562
S -1.71356314 18.44151621 22.07075948
S -4.98206781 16.45182884 13.36897634
S -5.14159546 16.79179415 19.09831473
S -8.38735596 22.60287356 13.03405152
S -8.53167740 22.29185420 18.68342062
S 1.61363484 16.56487176 12.99423890
S 1.68758131 16.63823720 18.74079439
S -1.63565376 22.47600848 13.04252021
S -1.76249363 22.44588881 18.94299125
S -3.42837940 15.62808701 16.20851680
S -3.35836432 15.62625032 21.90818097
S -6.78903361 21.42733912 15.98430935
S -6.72515244 21.15941079 21.69469728
S 3.18076891 15.66002117 16.15390499
S 3.35590289 15.54368238 21.81309687
S -0.19367195 21.37721070 16.12820773
S 0.13712961 21.38583495 21.81311259
S -8.40504747 16.74479220 12.75436802
S -8.53010001 16.49921995 18.54685517
S -11.95420434 22.30632723 13.28315254
S -12.06179320 22.01428049 19.08745373
S -1.58208328 16.51721399 13.34852161
S -1.78699579 16.48959846 19.09140273
S -5.04378651 22.41283603 13.21260176
S -5.10621660 22.17803426 18.70124329
Ba 16.76313783 1.75758689 1.31587738
Ba 16.72759856 1.97870258 6.94143148
Ba 13.65409226 7.67300483 1.47025786
Ba 13.38400880 8.05266353 7.21907520
Ba 23.76343739 1.81266494 1.53143712
Ba 23.61270550 2.21476257 7.27122022
Ba 20.38034769 7.92347093 1.44857194
Ba 20.06884263 7.78267227 7.64502304
Ba 13.58245097 3.64301172 4.20741194
Ba 13.26708792 4.14717471 10.02900916
Ba 10.03664409 9.65520162 4.19206304
Ba 10.23531796 9.85440259 9.87674270
Ba 20.06640115 3.98369204 4.34361950
Ba 20.12844541 3.86955863 10.23749942
Ba 16.90499123 9.77155454 4.36945251
Ba 17.10977195 9.73548048 10.48317111
Ti 0.14269423 22.87322214 3.01789344
Ti 0.11053279 23.23621307 8.78288223
Ti 10.27420758 5.56250418 2.67424039
Ti 10.00384362 5.67727955 8.44461500
Ti 6.73447252 22.96534323 2.56688964
Ti 6.49860921 23.23066064 8.39469899
Ti 16.63033627 5.86404005 3.13824419
Ti 16.64182426 5.73717151 9.05809151
Ti 13.42589156 0.05302642 0.12201740
Ti 13.30896072 0.24562622 5.87198654
Ti 10.00083523 5.92494242 22.98787108
Ti 10.17826424 6.04571251 5.57418378
Ti 6.99862463 23.38951458 22.94804817
Ti 20.06987398 0.25440319 5.44566072
Ti 17.19185557 5.72556366 0.27121190
Ti 16.93943693 6.02406135 6.11303692
S 13.46272182 1.87177393 1.50679970
S 13.26702407 2.06378851 7.22698039
S 10.13364351 7.70590527 1.36153066
S 10.14170227 7.83750125 7.18019626
S 20.30928916 1.67559112 1.32496026
S 20.06280448 2.12186137 7.02421124
S 17.04063263 7.73100290 1.52690118
S 17.07282290 7.77290937 7.61588875
S 18.55630662 0.88461338 3.85972292
S 18.35832349 1.05144035 9.96257908
S 15.19991240 6.88093244 4.53741765
S 15.22262737 7.07694859 10.25129042
S 25.49993070 1.14072832 4.61473925
S 25.32412287 1.14486929 10.20675714
S 21.91834509 6.86772069 4.15588548
S 22.01524996 6.72146827 10.09489417
S 15.24888555 0.88430655 4.34791056
S 15.02107560 1.18558768 10.14101595
S 11.89708406 6.77025681 4.16477034
S 11.74948576 7.04922000 10.06009717
S 21.78426770 0.90317708 4.11212777
S 21.72264312 0.81867046 10.01538819
S 18.51522187 6.77316149 4.44481157
S 18.40988272 6.59700688 10.29923948
S 15.25748900 4.79916739 1.43346373
S 15.07297668 4.97660187 7.39411076
S 11.86111758 10.85454762 1.20836099
S 12.12713008 10.75761467 7.22340261
S 21.99165216 4.76357384 1.46695339
S 21.96964737 4.76971932 7.11474680
S 18.53102253 10.63135996 1.69944012
S 18.62852077 10.65202443 7.50947582
S 16.82813988 3.97406316 4.61409955
S 16.33343036 4.00661640 10.40666606
S 13.35388937 9.53824027 4.24308180
S 13.75910910 9.80650017 10.22632975
S 23.81704160 3.87891747 4.26590464
S 23.52925669 4.00089853 10.20629112
S 20.27862051 9.63440888 4.59901247
S 20.30745209 9.66194754 10.51939998
S 11.90942185 4.80560870 1.37161386
S 11.83263112 5.07947925 7.24029911
S 8.52129198 10.65053809 1.19078891
S 8.53070021 10.97276715 7.04496231
S 18.50819331 4.72978320 1.67311829
S 18.46294341 4.84266242 7.58286535
S 15.12438491 10.80345272 1.19518362
S 15.26218727 10.70888948 7.09530863
Ba 16.61454030 2.16865120 12.98914730
Ba 16.72604624 1.95880458 18.60434325
Ba 13.55202463 7.86125823 13.00218226
Ba 13.48763842 7.79032674 18.68968998
Ba 23.22808652 2.06727051 12.86167076
Ba 23.63509625 1.84057939 18.71345215
Ba 20.18640652 7.84624366 13.14120355
Ba 20.22278746 7.78358741 18.96082471
Ba 13.35926629 4.00971243 16.06446491
Ba 13.57441287 3.92396931 21.78183286
Ba 10.09271094 9.76206814 15.90551156
Ba 10.27066814 9.90239582 21.54503992
Ba 20.19717332 3.78037685 15.85102376
Ba 20.37598961 3.93017663 21.66299847
Ba 16.95265034 9.61443136 16.13151716
Ba 16.91101148 9.74038020 21.60654157
Ti -0.19924027 23.19035021 14.80891426
Ti 0.16059351 23.30640791 20.49259565
Ti 10.18408099 6.02552534 14.23525052
Ti 10.04146549 5.73806964 20.08508305
Ti 6.68729029 23.22826620 14.18959128
Ti 6.35842119 23.34795538 19.96795990
Ti 16.79000287 5.74576657 14.71400864
Ti 16.48879218 5.81186882 20.56974785
Ti 13.46216510 0.52439934 11.73223263
Ti 13.28264708 0.11870676 17.58083004
Ti 10.06377670 6.18204812 11.32208706
Ti 10.02954360 5.87556468 17.13267193
Ti 19.85827630 0.10560319 11.30588377
Ti 20.31567469 0.18212355 17.00921549
Ti 16.66258700 5.98437035 11.84885996
Ti 16.84318272 5.70001176 17.65018828
S 13.29826165 2.12491556 13.29582459
S 13.33006973 1.93728126 19.05461260
S 10.04656968 7.95397881 12.80177764
S 10.04857714 7.75411930 18.72883586
S 19.86136906 1.98042876 12.99387610
S 20.17413678 1.92137757 18.67770611
S 16.73170686 7.87036195 13.21448822
S 16.79871613 7.70704989 18.91768938
S 18.54150954 0.99774711 15.69552061
S 18.50242410 0.85903127 21.61543115
S 15.28487297 6.72315893 15.94227669
S 15.20175918 6.98030320 22.01244112
S 25.24549809 1.07446149 16.09849243
S 25.30463548 1.09269861 22.11565977
S 21.91496163 7.00902119 15.95981639
S 21.98409951 6.77351443 21.62759416
S 14.98863521 0.82950840 16.15297206
S 15.29989153 0.97390937 21.72475410
S 11.81683553 7.07057052 15.78485923
S 11.78869258 6.75701943 21.62583007
S 21.91683671 1.09112061 15.63983337
S 21.84303385 1.10540716 21.41609113
S 18.46973934 6.60607278 16.14493035
S 18.50838069 6.81807112 21.86379228
S 15.06155952 4.96402535 13.10574075
S 14.98435477 4.86924790 18.97684230
S 11.72490996 10.86482975 13.00577433
S 11.75658355 10.60889202 18.76371158
S 21.88490579 4.93989629 13.00429656
S 21.73718739 5.04037944 18.77406188
S 18.60089492 10.73904649 13.27341548
S 18.39024542 10.74746074 18.94920277
S 16.85828216 3.88413468 16.10571357
S 16.89731070 3.85603773 21.73632786
S 13.54478898 9.86435382 15.83846885
S 13.49063162 9.66482426 21.76532780
S 23.35928312 4.00756167 16.14066730
S 23.63556894 3.80026775 21.76932421
S 20.12355718 9.73138444 16.03639664
S 20.16890437 9.70484033 22.08803357
S 11.72665128 5.00035903 12.94952538
S 11.92927792 4.99521283 18.79024936
S 8.47450859 10.77801559 13.05135156
S 8.44551245 10.70679501 18.61713886
S 18.43555051 5.09430198 13.14318753
S 18.38211025 5.04413005 19.19551498
S 15.05599610 10.77086610 12.89782076
S 15.10832927 10.59228375 18.57266630
Ba 10.33206530 13.55725498 1.47311401
Ba 10.32353187 13.61084520 7.40827424
Ba 6.91531683 19.35894402 1.50737084
Ba 6.82634545 19.40985592 7.12749350
Ba 16.77428445 13.59869647 1.58761752
Ba 17.10021281 13.53803822 7.36820760
Ba 13.52479898 19.46162848 1.43420335
Ba 13.34702257 19.35534618 7.18225530
Ba 7.05887048 15.69714518 3.96330027
Ba 6.62242873 15.53908913 10.07057871
Ba 3.59824930 21.23722727 4.44932333
Ba 3.26604967 21.21763787 10.23948254
Ba 13.63024412 15.68100269 3.94841639
Ba 13.68093758 15.71270152 10.06061960
Ba 10.13659327 21.67722294 4.42509616
Ba 9.92389894 21.43020674 10.16464441
Ti 7.02970434 11.59672286 2.83076656
Ti 6.95060274 11.66826599 8.75859860
Ti 3.60027007 17.47217778 2.90068998
Ti 3.61066177 17.58815730 8.69980140
Ti 13.50847255 11.35957954 2.92935169
Ti 13.92522321 11.63974223 8.87817031
Ti 10.40439196 17.20867012 2.91492032
Ti 10.22585739 17.29025623 8.71943088
Ti 6.73029226 11.70286512 23.15516515
Ti 6.67061127 11.91215819 5.78263592
Ti 3.31722510 17.80750374 0.03208042
Ti 3.02092834 17.74208441 5.72165690
Ti 13.53065211 12.04037516 23.16853337
Ti 13.46872266 11.99367990 5.87580687
Ti 10.10872209 17.79563476 0.03392992
Ti 10.21479392 17.80191489 5.79506587
S 6.95340290 13.62945449 1.33240464
S 6.68784634 13.69093618 7.17457551
S 3.67915266 19.53932093 1.39641540
S 3.37973564 19.53376010 7.17414357
S 13.41469810 13.76986161 1.32539935
S 13.57962406 13.81912399 7.15255729
S 10.23591775 19.49799680 1.51914118
S 10.18834302 19.52029656 7.15633001
S 12.07176049 12.89738594 4.16273894
S 11.95599484 12.79746766 10.00931964
S 8.72678129 18.56067384 4.21644694
S 8.41185774 18.52623380 9.98883057
S 18.72755028 12.70387833 4.45407666
S 18.59156399 12.61364254 10.15343145
S 15.29668073 18.53882910 4.01312239
S 15.09918043 18.36787419 9.70696252
S 8.60368927 12.65997397 4.21215474
S 8.67790161 12.75606465 10.04980623
S 5.12130695 18.54407296 4.26134557
S 4.89144309 18.72116788 10.19274320
S 15.20605925 12.48083115 4.16643475
S 15.25876897 12.74318389 10.16395764
S 12.05048013 18.39896599 4.22130873
S 11.64792626 18.79052329 10.07217228
S 8.62244645 16.63459131 1.37792036
S 8.51187157 16.43588091 7.28624566
S 5.12379089 22.19404440 1.02359253
S 4.93216411 22.47531514 7.05304364
S 15.15196734 16.61508678 1.09270893
S 15.27682083 16.54553064 6.85230868
S 11.97476218 22.47870438 1.64335406
S 11.93284740 22.39774980 7.35735304
S 10.35427033 15.55375908 4.56238879
S 10.25407458 15.57608465 10.25690712
S 6.75210564 21.39595416 4.34075368
S 6.57289791 21.36992161 9.97215974
S 16.86725659 15.62090242 4.10094516
S 16.93608734 15.57267429 9.88202449
S 13.56006552 21.48260012 4.56031038
S 13.63079794 21.55243319 10.34100695
S 5.10353530 16.53704060 1.43937532
S 5.03249643 16.74860103 7.04411848
S 1.59007361 22.20086421 1.32478050
S 1.62214601 22.40931615 7.31981199
S 11.85242766 16.56552339 1.33068453
S 11.85780738 16.65914324 7.29944253
S 8.55945244 22.12874206 1.30812031
S 8.28248250 22.66535718 7.10601014
Ba 10.19020937 13.88366786 13.05469908
Ba 10.18136812 13.74630997 18.68870455
Ba 6.71069463 19.31230573 13.07006872
Ba 6.54838012 19.57139900 18.49711784
Ba 16.83892334 13.60367941 12.84698868
Ba 16.90961747 13.68534396 18.78025654
Ba 13.46373166 19.53131771 13.03900704
Ba 13.30110162 19.34987229 18.66245734
Ba 6.82601744 15.63416829 16.14331187
Ba 6.58671241 15.34217077 21.66943959
Ba 3.46308620 21.44556914 15.80846098
Ba 3.23823666 21.34375597 21.74471392
Ba 13.63401478 15.50982553 16.00262290
Ba 13.50502971 15.66602971 21.49689450
Ba 9.89882997 21.42853304 15.82191687
Ba 9.99161062 21.34085105 21.34124578
Ti 6.75138641 11.95465000 14.50147151
Ti 7.05108088 11.49847875 20.31956322
Ti 3.34008755 17.34638262 14.56298174
Ti 3.35668626 17.36694877 20.31428462
Ti 13.66683371 11.73000277 14.53443316
Ti 13.49928253 11.39684205 20.28576250
Ti 10.17003902 17.52682223 14.49795291
Ti 10.03559948 17.30398557 20.26374291
Ti 6.94053249 11.73186623 11.66660783
Ti 6.63934809 11.82823902 17.46467741
Ti 3.13845109 17.72827262 11.57425421
Ti 3.19314500 17.89392540 17.46459824
Ti 13.16701894 11.89437563 11.64847556
Ti 13.46939247 11.89998352 17.43780211
Ti 10.11978324 17.76509451 11.53337401
Ti 10.08929815 17.81127651 17.41085768
S 6.79596625 13.72571778 12.87493539
S 6.92808799 13.73236249 18.85932962
S 3.47839439 19.39991682 13.04213974
S 3.41993784 19.66552807 18.91262371
S 13.53338906 13.74563677 12.94297652
S 13.33808581 13.69299611 18.91179080
S 9.97124452 19.44594158 13.06219031
S 10.03050510 19.45144740 18.89868012
S 11.73584364 12.74582826 15.89956163
S 11.83272119 12.61620086 21.49512438
S 8.40032784 18.60062372 15.94900644
S 8.40567244 18.54541080 21.69324155
S 18.64100450 12.55092819 16.04302753
S 18.55793203 12.72067007 21.75187593
S 15.06652077 18.33221005 15.75160240
S 15.03744455 18.58273009 21.40667885
S 8.42551808 12.73532339 15.95811375
S 8.63843131 12.60007975 21.48799203
S 4.86115072 18.47108084 15.87361787
S 4.89973226 18.52436775 21.75238035
S 15.22295387 12.74158662 15.94148946
S 15.17985296 12.64089065 21.39105240
S 11.78236039 18.73499951 15.81294352
S 11.73614355 18.70174974 21.57613681
S 8.49807306 16.69871121 13.11476551
S 8.40934140 16.63548353 18.82418108
S 4.93975310 22.32079606 12.85031296
S 4.87251354 22.40712184 18.54443461
S 15.23576987 16.67998881 12.86764759
S 15.07424409 16.58389941 18.62476505
S 11.66467674 22.20294550 13.18021874
S 11.54532931 22.66919472 18.99410337
S 10.16985868 15.79683861 15.95431435
S 10.25086694 15.64358500 21.68122768
S 6.68391936 21.42576230 15.70000979
S 6.85688688 21.44794008 21.33841077
S 16.81679791 15.43260428 15.66248019
S 16.74321625 15.66852290 21.57708210
S 13.45621532 21.53140007 16.19570166
S 13.47223321 21.52480967 22.21501860
S 4.93167546 16.43974845 12.70137348
S 4.89115429 16.62655577 18.71256444
S 1.60184113 22.65698305 13.18477890
S 1.62180298 22.33349537 18.80933798
S 11.81490000 16.74431878 12.89338776
S 11.70886092 16.47213513 18.64454736
S 8.30100490 22.45050095 12.88294179
S 8.26399497 22.35931140 18.49077756
640
Time=204999.99999914 pbc="T T T" Lattice="26.95433321 0.01071592 -0.00134817 -13.46792076 23.34996909 0.02768769 -0.00113433 0.02685193 23.17419867" Properties=species:S:1:pos:R:3
Ba 3.27946802 2.18305966 1.38180094
Ba 3.28909837 1.78670146 7.21258415
Ba 0.03745705 7.88091111 1.40729805
Ba 0.07132858 7.92485793 7.04804843
Ba 10.00787112 2.02509058 1.15815435
Ba 10.14337556 1.93868546 7.23889516
Ba 6.59965144 7.74802721 1.51168141
Ba 6.62431443 7.70333582 7.30623691
Ba -0.09681826 3.89849154 4.41106655
Ba -0.09097628 3.76612636 10.29547335
Ba -3.32945967 9.57956690 4.58824925
Ba -3.26232769 9.69019695 10.00451731
Ba 6.77416006 3.59008832 4.44249553
Ba 6.62278238 3.97510011 10.39782161
Ba 3.28969115 9.57781785 4.32817631
Ba 3.35112750 9.84158198 10.13547858
Ti 13.53537895 23.17786883 2.54670425
Ti 13.32318787 23.06894716 8.29281182
Ti 23.33724470 5.92234037 3.20660932
Ti 23.52459169 5.62735840 8.96069772
Ti -6.63960434 23.15600506 3.37178201
Ti -6.84803847 23.31890881 9.18804677
Ti 3.60137213 5.80040006 3.13867328
Ti 3.37404151 5.71924601 8.98231540
Ti -0.12418834 0.17363014 22.92535532
Ti 0.20738475 0.23784193 5.38076334
Ti -3.37936279 6.14777173 0.40899116
Ti -3.04937972 5.72849513 6.13649203
Ti 6.58423168 0.18519776 0.44806002
Ti 6.73705706 0.17959492 6.29813610
Ti 3.24164160 5.95658791 0.21006319
Ti 3.21560521 5.79434727 6.09993323
S -0.01379630 1.96294947 1.21272398
S 0.06377713 1.80321100 6.99696960
S -3.20514982 7.92968810 1.82137283
S -3.27642408 7.60041739 7.46905521
S 6.57605134 1.89054195 1.79967003
S 6.62638626 1.97081558 7.62433836
S 3.34192648 7.81737782 1.70059519
S 3.23153793 7.71167574 7.37587218
S 5.06673402 0.94813046 4.61281670
S 4.99109048 1.01692994 10.43388902
S 1.61570485 6.52524633 4.46466361
S 1.66343347 6.79237597 10.33029731
S 11.73660122 1.17813466 4.01615188
S 11.71140125 0.80000258 10.29190621
S 8.31770525 6.74553328 4.46552194
S 8.49076423 6.57134689 10.15824048
S 1.68419984 1.23181716 3.95747942
S 1.76400487 0.88422250 9.79583007
S -1.71251691 6.81050426 4.56326671
S -1.73507365 6.67504947 10.15325925
S 8.47119047 0.91846830 4.65256826
S 8.29993765 1.10439450 10.36246936
S 4.99838107 6.82804841 4.71207511
S 4.90642522 6.94743082 10.23494231
S 1.76358434 4.80157325 1.75352084
S 1.66516602 4.67743617 7.53521910
S -1.63139345 10.75609329 1.20860025
S -1.72717857 10.94811740 7.12532884
S 8.30850497 4.69390262 1.42626969
S 8.31891378 4.90658900 7.21359177
S 5.02424102 10.64787614 1.09449898
S 5.11345773 10.72944294 6.94423500
S 3.50138916 3.88113907 4.63932655
S 3.31503333 3.95040476 10.44523444
S -0.07238599 9.69052395 4.16536084
S 0.12970382 9.69093694 10.03136136
S 9.86726180 3.75293877 4.41444642
S 10.35092964 3.78239222 10.24675333
S 6.71677301 9.57793419 3.90559605
S 6.95630155 9.89025359 9.67081854
S -1.69918459 4.85244655 1.61278728
S -1.67263460 4.43904561 7.49078747
S -5.09258791 10.58186772 1.69123952
S -5.16812417 10.48855001 7.41671420
S 5.12701902 4.96357033 1.57277828
S 5.01732648 4.94967499 7.38716033
S 1.68892561 10.60843132 1.04894914
S 1.57417129 10.69139435 6.86140070
Ba 3.60229101 2.22993279 13.33014083
Ba 3.33785162 2.09276146 18.93506727
Ba 0.07126711 7.73103302 13.22719659
Ba 0.11089872 7.79876923 18.73340272
Ba 10.32596451 1.90424449 12.86197312
Ba 10.13133147 2.09377229 18.66456935
Ba 6.79038913 7.66389629 13.00502413
Ba 6.60475934 7.63668054 18.85220559
Ba 0.07974506 3.91292152 16.02945300
Ba -0.07108347 3.98289743 21.91941245
Ba -3.34782750 9.75629523 15.74108700
Ba -3.64149649 9.66934140 21.85116852
Ba 6.80218964 3.96366250 16.44272934
Ba 6.73261751 3.90933671 21.91970057
Ba 3.43842947 9.85983538 15.94058985
Ba 3.36651211 9.94464377 21.65588881
Ti 13.43703322 23.23740691 14.17930098
Ti -13.23553975 23.23982296 20.02011951
Ti 23.44962853 5.77790968 14.69004524
Ti 23.52611855 5.83317320 20.68461325
Ti -6.70901227 23.16448539 14.97495914
Ti -6.97074059 23.27512788 20.73787300
Ti 3.64147089 5.64884495 14.80263787
Ti 3.60066184 5.79212399 20.43017887
Ti 0.22295133 0.10252349 11.32910346
Ti 0.06604216 0.37391098 17.06851503
Ti -3.20450945 5.85385086 11.87266590
Ti -3.31621977 6.08397613 17.74649396
Ti 6.74503588 0.28588091 11.97570922
Ti 6.72901660 0.14102288 17.78631837
Ti 3.24264799 6.07361670 11.89591824
Ti 3.13414264 6.15399102 17.53020263
S 0.01078720 1.91107369 12.90471844
S 0.10276156 1.99671267 18.72405755
S -3.32237485 7.82052957 13.15993108
S -3.32467195 7.86390321 19.06823165
S 6.73231663 2.03592780 13.52934310
S 6.64729127 2.03894252 19.21688732
S 3.36675939 7.84265566 13.20259179
S 3.47266894 7.87902741 18.96420125
S 5.26017774 1.08452992 16.18190109
S 4.76423295 0.65801010 22.03325571
S 1.67539457 6.89800685 15.96386461
S 1.66147059 6.85325253 21.76858577
S 11.90121119 1.00311832 15.63329571
S 11.70093530 1.15355839 21.49146632
S 8.50731370 6.94024730 15.94081253
S 8.36404758 6.83356053 21.80198156
S 1.91585942 1.08400096 15.76589823
S 1.73692882 0.99619712 21.56567165
S -1.62660829 6.79373559 16.07974644
S -1.79229208 7.08564553 21.93522864
S 8.44539076 0.84043754 16.25482465
S 8.12226722 1.12221358 22.00320351
S 5.08349346 6.97859024 16.06576752
S 5.14159800 6.98234543 21.90342192
S 1.71767726 4.89219964 13.26923491
S 1.74893164 4.99606524 19.05988844
S -1.45174246 10.60489529 12.87974060
S -1.67063413 10.69332580 18.38926632
S 8.56525321 4.78647582 13.15891984
S 8.48350648 4.89738817 18.71933174
S 5.20022151 10.76533931 12.61517824
S 5.05812655 10.62913587 18.54343724
S 3.45639146 3.91059758 16.22174031
S 3.61223370 4.12283449 22.02027314
S -0.02062181 9.83974253 15.82347676
S -0.10510175 9.85241604 21.61317751
S 10.27977457 3.85810017 16.06940446
S 10.04340866 3.91957797 21.66954822
S 6.80272816 9.75327864 15.58730920
S 6.70756920 9.71784028 21.50885531
S -1.49981349 4.95834307 13.26287014
S -1.75233018 5.05655488 19.17972692
S -5.01801067 10.75021414 13.21138799
S -5.15635528 10.70611071 19.22528876
S 5.24316749 5.02641140 13.18336340
S 4.99944702 4.75007578 18.90708135